16
	Energy:     137.5394736
C         -1.13041       -1.15737       -2.64715
C         -2.36018       -1.07844       -3.15458
H         -2.79968       -0.09980       -3.29539
C         -3.03364       -2.26637       -3.77349
C         -3.50516       -3.31621       -3.09706
F         -3.19889       -2.22199       -4.83910
C         -3.40045       -3.40987       -1.63715
H         -4.06417       -4.08633       -3.63115
C         -0.42590       -2.43601       -2.53080
F         -0.59115       -0.23529       -2.41153
C         -0.93245       -3.44985       -1.79892
H          0.55564       -2.54396       -2.97712
C         -2.20273       -3.39481       -1.03306
F         -0.34112       -4.34951       -1.70634
H         -2.17912       -3.54132        0.04348
F         -4.29610       -3.58733       -1.05154
